# vtk DataFile Version 3.0
vtk output
ASCII
DATASET UNSTRUCTURED_GRID
POINTS 256 double
1.000000e+00	5.352203e-08	0.0	9.979658e-01	-2.881795e-04	0.0	9.957821e-01	-5.967887e-04	0.0	9.934385e-01	-9.270489e-04	0.0	9.909241e-01	-1.280290e-03	0.0	9.882276e-01	-1.657893e-03	0.0	9.853369e-01	-2.061293e-03	0.0	9.822392e-01	-2.491970e-03	0.0	9.789211e-01	-2.951446e-03	0.0	9.753688e-01	-3.441283e-03	0.0	9.715675e-01	-3.963073e-03	0.0	9.675022e-01	-4.518430e-03	0.0	9.631568e-01	-5.108981e-03	0.0	9.585152e-01	-5.736358e-03	0.0	9.535602e-01	-6.402178e-03	0.0	9.482747e-01	-7.108035e-03	0.0	9.426407e-01	-7.855481e-03	0.0	9.366402e-01	-8.646007e-03	0.0	9.302548e-01	-9.481022e-03	0.0	9.234661e-01	-1.036183e-02	0.0	9.162555e-01	-1.128962e-02	0.0	9.086049e-01	-1.226540e-02	0.0	9.004963e-01	-1.329003e-02	0.0	8.919122e-01	-1.436413e-02	0.0	8.828360e-01	-1.548810e-02	0.0	8.732520e-01	-1.666204e-02	0.0	8.631457e-01	-1.788578e-02	0.0	8.525041e-01	-1.915879e-02	0.0	8.413160e-01	-2.048016e-02	0.0	8.295722e-01	-2.184859e-02	0.0	8.172658e-01	-2.326236e-02	0.0	8.043927e-01	-2.471926e-02	0.0	7.909518e-01	-2.621660e-02	0.0	7.769449e-01	-2.775117e-02	0.0	7.623778e-01	-2.931924e-02	0.0	7.472594e-01	-3.091649e-02	0.0	7.316032e-01	-3.253806e-02	0.0	7.154262e-01	-3.417852e-02	0.0	6.987499e-01	-3.583186e-02	0.0	6.816001e-01	-3.749149e-02	0.0	6.640066e-01	-3.915032e-02	0.0	6.460033e-01	-4.080073e-02	0.0	6.276283e-01	-4.243463e-02	0.0	6.089231e-01	-4.404353e-02	0.0	5.899328e-01	-4.561861e-02	0.0	5.707054e-01	-4.715081e-02	0.0	5.512916e-01	-4.863091e-02	0.0	5.317439e-01	-5.004967e-02	0.0	5.121166e-01	-5.139795e-02	0.0	4.924646e-01	-5.266684e-02	0.0	4.728433e-01	-5.384781e-02	0.0	4.533078e-01	-5.493285e-02	0.0	4.339121e-01	-5.591460e-02	0.0	4.147089e-01	-5.678649e-02	0.0	3.957488e-01	-5.754285e-02	0.0	3.770798e-01	-5.817904e-02	0.0	3.587470e-01	-5.869148e-02	0.0	3.407920e-01	-5.907774e-02	0.0	3.232528e-01	-5.933656e-02	0.0	3.061635e-01	-5.946785e-02	0.0	2.895540e-01	-5.947265e-02	0.0	2.734501e-01	-5.935312e-02	0.0	2.578733e-01	-5.911242e-02	0.0	2.428411e-01	-5.875465e-02	0.0	2.283666e-01	-5.828472e-02	0.0	2.144593e-01	-5.770827e-02	0.0	2.011248e-01	-5.703151e-02	0.0	1.883653e-01	-5.626108e-02	0.0	1.761797e-01	-5.540400e-02	0.0	1.645640e-01	-5.446745e-02	0.0	1.535115e-01	-5.345876e-02	0.0	1.430130e-01	-5.238521e-02	0.0	1.330575e-01	-5.125403e-02	0.0	1.236320e-01	-5.007223e-02	0.0	1.147221e-01	-4.884662e-02	0.0	1.063121e-01	-4.758371e-02	0.0	9.838552e-02	-4.628967e-02	0.0	9.092487e-02	-4.497031e-02	0.0	8.391231e-02	-4.363107e-02	0.0	7.732958e-02	-4.227696e-02	0.0	7.115831e-02	-4.091264e-02	0.0	6.538010e-02	-3.954236e-02	0.0	5.997667e-02	-3.816999e-02	0.0	5.493001e-02	-3.679904e-02	0.0	5.022241e-02	-3.543267e-02	0.0	4.583663e-02	-3.407371e-02	0.0	4.175588e-02	-3.272472e-02	0.0	3.796391e-02	-3.138797e-02	0.0	3.444509e-02	-3.006547e-02	0.0	3.118434e-02	-2.875905e-02	0.0	2.816724e-02	-2.747033e-02	0.0	2.538000e-02	-2.620076e-02	0.0	2.280944e-02	-2.495170e-02	0.0	2.044304e-02	-2.372436e-02	0.0	1.826886e-02	-2.251990e-02	0.0	1.627552e-02	-2.133943e-02	0.0	1.445220e-02	-2.018403e-02	0.0	1.278872e-02	-1.905473e-02	0.0	1.127516e-02	-1.795263e-02	0.0	9.902279e-03	-1.687881e-02	0.0	8.660978e-03	-1.583433e-02	0.0	7.542787e-03	-1.482043e-02	0.0	6.539262e-03	-1.383810e-02	0.0	5.642485e-03	-1.288858e-02	0.0	4.844550e-03	-1.197282e-02	0.0	4.137967e-03	-1.109193e-02	0.0	3.515320e-03	-1.024671e-02	0.0	2.969442e-03	-9.437891e-03	0.0	2.493434e-03	-8.666020e-03	0.0	2.080623e-03	-7.931397e-03	0.0	1.724623e-03	-7.234077e-03	0.0	1.419378e-03	-6.573860e-03	0.0	1.159193e-03	-5.950300e-03	0.0	9.387642e-04	-5.362709e-03	0.0	7.531893e-04	-4.810177e-03	0.0	5.979923e-04	-4.291611e-03	0.0	4.691284e-04	-3.805771e-03	0.0	3.629543e-04	-3.351289e-03	0.0	2.762360e-04	-2.926719e-03	0.0	2.061140e-04	-2.530564e-03	0.0	1.500786e-04	-2.161300e-03	0.0	1.059404e-04	-1.817405e-03	0.0	7.180327e-05	-1.497377e-03	0.0	4.602934e-05	-1.199749e-03	0.0	2.721276e-05	-9.231024e-04	0.0	1.415063e-05	-6.660730e-04	0.0	5.818606e-06	-4.273592e-04	0.0	1.346917e-06	-2.057247e-04	0.0	0.000000e+00	0.000000e+00	0.0	1.346917e-06	2.057247e-04	0.0	5.818606e-06	4.273592e-04	0.0	1.415063e-05	6.660730e-04	0.0	2.721276e-05	9.231024e-04	0.0	4.602934e-05	1.199749e-03	0.0	7.180327e-05	1.497377e-03	0.0	1.059404e-04	1.817405e-03	0.0	1.500786e-04	2.161300e-03	0.0	2.061140e-04	2.530564e-03	0.0	2.762360e-04	2.926719e-03	0.0	3.629543e-04	3.351289e-03	0.0	4.691284e-04	3.805771e-03	0.0	5.979923e-04	4.291611e-03	0.0	7.531893e-04	4.810177e-03	0.0	9.387642e-04	5.362709e-03	0.0	1.159193e-03	5.950300e-03	0.0	1.419378e-03	6.573860e-03	0.0	1.724623e-03	7.234077e-03	0.0	2.080623e-03	7.931397e-03	0.0	2.493434e-03	8.666020e-03	0.0	2.969442e-03	9.437891e-03	0.0	3.515320e-03	1.024671e-02	0.0	4.137967e-03	1.109193e-02	0.0	4.844550e-03	1.197282e-02	0.0	5.642485e-03	1.288858e-02	0.0	6.539262e-03	1.383810e-02	0.0	7.542787e-03	1.482043e-02	0.0	8.660978e-03	1.583433e-02	0.0	9.902279e-03	1.687881e-02	0.0	1.127516e-02	1.795263e-02	0.0	1.278872e-02	1.905473e-02	0.0	1.445220e-02	2.018403e-02	0.0	1.627552e-02	2.133943e-02	0.0	1.826886e-02	2.251990e-02	0.0	2.044304e-02	2.372436e-02	0.0	2.280944e-02	2.495170e-02	0.0	2.538000e-02	2.620076e-02	0.0	2.816724e-02	2.747033e-02	0.0	3.118434e-02	2.875905e-02	0.0	3.444509e-02	3.006547e-02	0.0	3.796391e-02	3.138797e-02	0.0	4.175588e-02	3.272472e-02	0.0	4.583663e-02	3.407371e-02	0.0	5.022241e-02	3.543267e-02	0.0	5.493001e-02	3.679904e-02	0.0	5.997667e-02	3.816999e-02	0.0	6.538010e-02	3.954236e-02	0.0	7.115831e-02	4.091264e-02	0.0	7.732958e-02	4.227696e-02	0.0	8.391231e-02	4.363107e-02	0.0	9.092487e-02	4.497031e-02	0.0	9.838552e-02	4.628967e-02	0.0	1.063121e-01	4.758371e-02	0.0	1.147221e-01	4.884662e-02	0.0	1.236320e-01	5.007223e-02	0.0	1.330575e-01	5.125403e-02	0.0	1.430130e-01	5.238521e-02	0.0	1.535115e-01	5.345876e-02	0.0	1.645640e-01	5.446745e-02	0.0	1.761797e-01	5.540400e-02	0.0	1.883653e-01	5.626108e-02	0.0	2.011248e-01	5.703151e-02	0.0	2.144593e-01	5.770827e-02	0.0	2.283666e-01	5.828472e-02	0.0	2.428411e-01	5.875465e-02	0.0	2.578733e-01	5.911242e-02	0.0	2.734501e-01	5.935312e-02	0.0	2.895540e-01	5.947265e-02	0.0	3.061635e-01	5.946785e-02	0.0	3.232528e-01	5.933656e-02	0.0	3.407920e-01	5.907774e-02	0.0	3.587470e-01	5.869148e-02	0.0	3.770798e-01	5.817904e-02	0.0	3.957488e-01	5.754285e-02	0.0	4.147089e-01	5.678649e-02	0.0	4.339121e-01	5.591460e-02	0.0	4.533078e-01	5.493285e-02	0.0	4.728433e-01	5.384781e-02	0.0	4.924646e-01	5.266684e-02	0.0	5.121166e-01	5.139795e-02	0.0	5.317439e-01	5.004967e-02	0.0	5.512916e-01	4.863091e-02	0.0	5.707054e-01	4.715081e-02	0.0	5.899328e-01	4.561861e-02	0.0	6.089231e-01	4.404353e-02	0.0	6.276283e-01	4.243463e-02	0.0	6.460033e-01	4.080073e-02	0.0	6.640066e-01	3.915032e-02	0.0	6.816001e-01	3.749149e-02	0.0	6.987499e-01	3.583186e-02	0.0	7.154262e-01	3.417852e-02	0.0	7.316032e-01	3.253806e-02	0.0	7.472594e-01	3.091649e-02	0.0	7.623778e-01	2.931924e-02	0.0	7.769449e-01	2.775117e-02	0.0	7.909518e-01	2.621660e-02	0.0	8.043927e-01	2.471926e-02	0.0	8.172658e-01	2.326236e-02	0.0	8.295722e-01	2.184859e-02	0.0	8.413160e-01	2.048016e-02	0.0	8.525041e-01	1.915879e-02	0.0	8.631457e-01	1.788578e-02	0.0	8.732520e-01	1.666204e-02	0.0	8.828360e-01	1.548810e-02	0.0	8.919122e-01	1.436413e-02	0.0	9.004963e-01	1.329003e-02	0.0	9.086049e-01	1.226540e-02	0.0	9.162555e-01	1.128962e-02	0.0	9.234661e-01	1.036183e-02	0.0	9.302548e-01	9.481022e-03	0.0	9.366402e-01	8.646007e-03	0.0	9.426407e-01	7.855481e-03	0.0	9.482747e-01	7.108035e-03	0.0	9.535602e-01	6.402178e-03	0.0	9.585152e-01	5.736358e-03	0.0	9.631568e-01	5.108981e-03	0.0	9.675022e-01	4.518430e-03	0.0	9.715675e-01	3.963073e-03	0.0	9.753688e-01	3.441283e-03	0.0	9.789211e-01	2.951446e-03	0.0	9.822392e-01	2.491970e-03	0.0	9.853369e-01	2.061293e-03	0.0	9.882276e-01	1.657893e-03	0.0	9.909241e-01	1.280290e-03	0.0	9.934385e-01	9.270489e-04	0.0	9.957821e-01	5.967887e-04	0.0	9.979658e-01	2.881795e-04	0.0	
CELLS 256	768
2	0	1	2	1	2	2	2	3	2	3	4	2	4	5	2	5	6	2	6	7	2	7	8	2	8	9	2	9	10	2	10	11	2	11	12	2	12	13	2	13	14	2	14	15	2	15	16	2	16	17	2	17	18	2	18	19	2	19	20	2	20	21	2	21	22	2	22	23	2	23	24	2	24	25	2	25	26	2	26	27	2	27	28	2	28	29	2	29	30	2	30	31	2	31	32	2	32	33	2	33	34	2	34	35	2	35	36	2	36	37	2	37	38	2	38	39	2	39	40	2	40	41	2	41	42	2	42	43	2	43	44	2	44	45	2	45	46	2	46	47	2	47	48	2	48	49	2	49	50	2	50	51	2	51	52	2	52	53	2	53	54	2	54	55	2	55	56	2	56	57	2	57	58	2	58	59	2	59	60	2	60	61	2	61	62	2	62	63	2	63	64	2	64	65	2	65	66	2	66	67	2	67	68	2	68	69	2	69	70	2	70	71	2	71	72	2	72	73	2	73	74	2	74	75	2	75	76	2	76	77	2	77	78	2	78	79	2	79	80	2	80	81	2	81	82	2	82	83	2	83	84	2	84	85	2	85	86	2	86	87	2	87	88	2	88	89	2	89	90	2	90	91	2	91	92	2	92	93	2	93	94	2	94	95	2	95	96	2	96	97	2	97	98	2	98	99	2	99	100	2	100	101	2	101	102	2	102	103	2	103	104	2	104	105	2	105	106	2	106	107	2	107	108	2	108	109	2	109	110	2	110	111	2	111	112	2	112	113	2	113	114	2	114	115	2	115	116	2	116	117	2	117	118	2	118	119	2	119	120	2	120	121	2	121	122	2	122	123	2	123	124	2	124	125	2	125	126	2	126	127	2	127	128	2	128	129	2	129	130	2	130	131	2	131	132	2	132	133	2	133	134	2	134	135	2	135	136	2	136	137	2	137	138	2	138	139	2	139	140	2	140	141	2	141	142	2	142	143	2	143	144	2	144	145	2	145	146	2	146	147	2	147	148	2	148	149	2	149	150	2	150	151	2	151	152	2	152	153	2	153	154	2	154	155	2	155	156	2	156	157	2	157	158	2	158	159	2	159	160	2	160	161	2	161	162	2	162	163	2	163	164	2	164	165	2	165	166	2	166	167	2	167	168	2	168	169	2	169	170	2	170	171	2	171	172	2	172	173	2	173	174	2	174	175	2	175	176	2	176	177	2	177	178	2	178	179	2	179	180	2	180	181	2	181	182	2	182	183	2	183	184	2	184	185	2	185	186	2	186	187	2	187	188	2	188	189	2	189	190	2	190	191	2	191	192	2	192	193	2	193	194	2	194	195	2	195	196	2	196	197	2	197	198	2	198	199	2	199	200	2	200	201	2	201	202	2	202	203	2	203	204	2	204	205	2	205	206	2	206	207	2	207	208	2	208	209	2	209	210	2	210	211	2	211	212	2	212	213	2	213	214	2	214	215	2	215	216	2	216	217	2	217	218	2	218	219	2	219	220	2	220	221	2	221	222	2	222	223	2	223	224	2	224	225	2	225	226	2	226	227	2	227	228	2	228	229	2	229	230	2	230	231	2	231	232	2	232	233	2	233	234	2	234	235	2	235	236	2	236	237	2	237	238	2	238	239	2	239	240	2	240	241	2	241	242	2	242	243	2	243	244	2	244	245	2	245	246	2	246	247	2	247	248	2	248	249	2	249	250	2	250	251	2	251	252	2	252	253	2	253	254	2	254	255	2	255	0	
CELL_TYPES 256
3	3	3	3	3	3	3	3	3	3	3	3	3	3	3	3	3	3	3	3	3	3	3	3	3	3	3	3	3	3	3	3	3	3	3	3	3	3	3	3	3	3	3	3	3	3	3	3	3	3	3	3	3	3	3	3	3	3	3	3	3	3	3	3	3	3	3	3	3	3	3	3	3	3	3	3	3	3	3	3	3	3	3	3	3	3	3	3	3	3	3	3	3	3	3	3	3	3	3	3	3	3	3	3	3	3	3	3	3	3	3	3	3	3	3	3	3	3	3	3	3	3	3	3	3	3	3	3	3	3	3	3	3	3	3	3	3	3	3	3	3	3	3	3	3	3	3	3	3	3	3	3	3	3	3	3	3	3	3	3	3	3	3	3	3	3	3	3	3	3	3	3	3	3	3	3	3	3	3	3	3	3	3	3	3	3	3	3	3	3	3	3	3	3	3	3	3	3	3	3	3	3	3	3	3	3	3	3	3	3	3	3	3	3	3	3	3	3	3	3	3	3	3	3	3	3	3	3	3	3	3	3	3	3	3	3	3	3	3	3	3	3	3	3	3	3	3	3	3	3	3	3	3	3	3	3	
POINT_DATA 256

SCALARS Pressure double 1
LOOKUP_TABLE default
1.203452e-01	1.133991e-01	1.085799e-01	1.032501e-01	9.834820e-02	9.378674e-02	8.943070e-02	8.517050e-02	8.094803e-02	7.674292e-02	7.254848e-02	6.835627e-02	6.415687e-02	5.992486e-02	5.565690e-02	5.135888e-02	4.702382e-02	4.265383e-02	3.825098e-02	3.381708e-02	2.935535e-02	2.486883e-02	2.036020e-02	1.583248e-02	1.128812e-02	6.729193e-03	2.157733e-03	-2.425252e-03	-7.018498e-03	-1.162329e-02	-1.623977e-02	-2.087040e-02	-2.551859e-02	-3.018856e-02	-3.488543e-02	-3.961470e-02	-4.438294e-02	-4.919633e-02	-5.406389e-02	-5.898949e-02	-6.398324e-02	-6.903542e-02	-7.414535e-02	-7.933420e-02	-8.459568e-02	-8.993983e-02	-9.533192e-02	-1.007843e-01	-1.062916e-01	-1.118497e-01	-1.174153e-01	-1.229955e-01	-1.285770e-01	-1.341121e-01	-1.396016e-01	-1.450170e-01	-1.503206e-01	-1.555068e-01	-1.605336e-01	-1.654424e-01	-1.702680e-01	-1.747546e-01	-1.789330e-01	-1.828454e-01	-1.864913e-01	-1.898356e-01	-1.928739e-01	-1.955858e-01	-1.979575e-01	-1.999832e-01	-2.016374e-01	-2.029215e-01	-2.038107e-01	-2.042983e-01	-2.043902e-01	-2.040644e-01	-2.032763e-01	-2.020441e-01	-2.003405e-01	-1.981055e-01	-1.953346e-01	-1.920168e-01	-1.880901e-01	-1.834805e-01	-1.781296e-01	-1.720780e-01	-1.651844e-01	-1.573820e-01	-1.486024e-01	-1.386668e-01	-1.276717e-01	-1.154540e-01	-1.018903e-01	-8.689762e-02	-7.042731e-02	-5.236189e-02	-3.259615e-02	-1.114518e-02	1.192402e-02	3.663534e-02	6.279724e-02	9.035255e-02	1.192512e-01	1.495235e-01	1.796165e-01	2.097075e-01	2.396553e-01	2.688577e-01	2.971103e-01	3.238087e-01	3.488233e-01	3.718161e-01	3.926367e-01	4.113812e-01	4.279879e-01	4.425619e-01	4.553229e-01	4.662599e-01	4.752058e-01	4.822414e-01	4.877116e-01	4.918602e-01	4.949859e-01	4.974101e-01	4.992109e-01	5.005383e-01	5.014015e-01	5.018931e-01	5.020635e-01	5.018917e-01	5.014014e-01	5.005303e-01	4.992116e-01	4.974104e-01	4.949865e-01	4.918610e-01	4.877126e-01	4.822426e-01	4.752071e-01	4.662614e-01	4.553246e-01	4.425638e-01	4.279900e-01	4.113835e-01	3.926392e-01	3.718188e-01	3.488261e-01	3.238117e-01	2.971135e-01	2.688610e-01	2.396588e-01	2.097111e-01	1.796201e-01	1.495271e-01	1.192549e-01	9.035625e-02	6.280093e-02	3.663901e-02	1.192765e-02	-1.114162e-02	-3.259265e-02	-5.235846e-02	-7.042395e-02	-8.689435e-02	-1.018871e-01	-1.154509e-01	-1.276687e-01	-1.386639e-01	-1.485995e-01	-1.573793e-01	-1.651818e-01	-1.720755e-01	-1.781271e-01	-1.834781e-01	-1.880878e-01	-1.920146e-01	-1.953325e-01	-1.981034e-01	-2.003385e-01	-2.020421e-01	-2.032744e-01	-2.040626e-01	-2.043884e-01	-2.042965e-01	-2.038090e-01	-2.029199e-01	-2.016359e-01	-1.999817e-01	-1.979560e-01	-1.955843e-01	-1.928725e-01	-1.898342e-01	-1.864899e-01	-1.828440e-01	-1.789317e-01	-1.747534e-01	-1.702668e-01	-1.654412e-01	-1.605324e-01	-1.555056e-01	-1.503195e-01	-1.450159e-01	-1.396005e-01	-1.341110e-01	-1.285759e-01	-1.229945e-01	-1.174143e-01	-1.118487e-01	-1.062905e-01	-1.007832e-01	-9.533089e-02	-8.993880e-02	-8.459465e-02	-7.933317e-02	-7.414431e-02	-6.903438e-02	-6.398219e-02	-5.898843e-02	-5.406281e-02	-4.919523e-02	-4.438185e-02	-3.961358e-02	-3.488430e-02	-3.018740e-02	-2.551741e-02	-2.086919e-02	-1.623852e-02	-1.162201e-02	-7.017208e-03	-2.423921e-03	2.159101e-03	6.730603e-03	1.128956e-02	1.583395e-02	2.036173e-02	2.487041e-02	2.935698e-02	3.381876e-02	3.825272e-02	4.265563e-02	4.702568e-02	5.136081e-02	5.565890e-02	5.992693e-02	6.415902e-02	6.835851e-02	7.255081e-02	7.674534e-02	8.095056e-02	8.517314e-02	8.943349e-02	9.378976e-02	9.835150e-02	1.032537e-01	1.085833e-01	1.133860e-01	
SCALARS X-Velocity double 1
LOOKUP_TABLE default
0.000000e+00	0.000000e+00	0.000000e+00	0.000000e+00	0.000000e+00	0.000000e+00	0.000000e+00	0.000000e+00	0.000000e+00	0.000000e+00	0.000000e+00	0.000000e+00	0.000000e+00	0.000000e+00	0.000000e+00	0.000000e+00	0.000000e+00	0.000000e+00	0.000000e+00	0.000000e+00	0.000000e+00	0.000000e+00	0.000000e+00	0.000000e+00	0.000000e+00	0.000000e+00	0.000000e+00	0.000000e+00	0.000000e+00	0.000000e+00	0.000000e+00	0.000000e+00	0.000000e+00	0.000000e+00	0.000000e+00	0.000000e+00	0.000000e+00	0.000000e+00	0.000000e+00	0.000000e+00	0.000000e+00	0.000000e+00	0.000000e+00	0.000000e+00	0.000000e+00	0.000000e+00	0.000000e+00	0.000000e+00	0.000000e+00	0.000000e+00	0.000000e+00	0.000000e+00	0.000000e+00	0.000000e+00	0.000000e+00	0.000000e+00	0.000000e+00	0.000000e+00	0.000000e+00	0.000000e+00	0.000000e+00	0.000000e+00	0.000000e+00	0.000000e+00	0.000000e+00	0.000000e+00	0.000000e+00	0.000000e+00	0.000000e+00	0.000000e+00	0.000000e+00	0.000000e+00	0.000000e+00	0.000000e+00	0.000000e+00	0.000000e+00	0.000000e+00	0.000000e+00	0.000000e+00	0.000000e+00	0.000000e+00	0.000000e+00	0.000000e+00	0.000000e+00	0.000000e+00	0.000000e+00	0.000000e+00	0.000000e+00	0.000000e+00	0.000000e+00	0.000000e+00	0.000000e+00	0.000000e+00	0.000000e+00	0.000000e+00	0.000000e+00	0.000000e+00	0.000000e+00	0.000000e+00	0.000000e+00	0.000000e+00	0.000000e+00	0.000000e+00	0.000000e+00	0.000000e+00	0.000000e+00	0.000000e+00	0.000000e+00	0.000000e+00	0.000000e+00	0.000000e+00	0.000000e+00	0.000000e+00	0.000000e+00	0.000000e+00	0.000000e+00	0.000000e+00	0.000000e+00	0.000000e+00	0.000000e+00	0.000000e+00	0.000000e+00	0.000000e+00	0.000000e+00	0.000000e+00	0.000000e+00	0.000000e+00	0.000000e+00	0.000000e+00	0.000000e+00	0.000000e+00	0.000000e+00	0.000000e+00	0.000000e+00	0.000000e+00	0.000000e+00	0.000000e+00	0.000000e+00	0.000000e+00	0.000000e+00	0.000000e+00	0.000000e+00	0.000000e+00	0.000000e+00	0.000000e+00	0.000000e+00	0.000000e+00	0.000000e+00	0.000000e+00	0.000000e+00	0.000000e+00	0.000000e+00	0.000000e+00	0.000000e+00	0.000000e+00	0.000000e+00	0.000000e+00	0.000000e+00	0.000000e+00	0.000000e+00	0.000000e+00	0.000000e+00	0.000000e+00	0.000000e+00	0.000000e+00	0.000000e+00	0.000000e+00	0.000000e+00	0.000000e+00	0.000000e+00	0.000000e+00	0.000000e+00	0.000000e+00	0.000000e+00	0.000000e+00	0.000000e+00	0.000000e+00	0.000000e+00	0.000000e+00	0.000000e+00	0.000000e+00	0.000000e+00	0.000000e+00	0.000000e+00	0.000000e+00	0.000000e+00	0.000000e+00	0.000000e+00	0.000000e+00	0.000000e+00	0.000000e+00	0.000000e+00	0.000000e+00	0.000000e+00	0.000000e+00	0.000000e+00	0.000000e+00	0.000000e+00	0.000000e+00	0.000000e+00	0.000000e+00	0.000000e+00	0.000000e+00	0.000000e+00	0.000000e+00	0.000000e+00	0.000000e+00	0.000000e+00	0.000000e+00	0.000000e+00	0.000000e+00	0.000000e+00	0.000000e+00	0.000000e+00	0.000000e+00	0.000000e+00	0.000000e+00	0.000000e+00	0.000000e+00	0.000000e+00	0.000000e+00	0.000000e+00	0.000000e+00	0.000000e+00	0.000000e+00	0.000000e+00	0.000000e+00	0.000000e+00	0.000000e+00	0.000000e+00	0.000000e+00	0.000000e+00	0.000000e+00	0.000000e+00	0.000000e+00	0.000000e+00	0.000000e+00	0.000000e+00	0.000000e+00	0.000000e+00	0.000000e+00	0.000000e+00	0.000000e+00	0.000000e+00	0.000000e+00	0.000000e+00	0.000000e+00	0.000000e+00	0.000000e+00	0.000000e+00	0.000000e+00	0.000000e+00	0.000000e+00	0.000000e+00	0.000000e+00	0.000000e+00	
SCALARS Y-Velocity double 1
LOOKUP_TABLE default
0.000000e+00	0.000000e+00	0.000000e+00	0.000000e+00	0.000000e+00	0.000000e+00	0.000000e+00	0.000000e+00	0.000000e+00	0.000000e+00	0.000000e+00	0.000000e+00	0.000000e+00	0.000000e+00	0.000000e+00	0.000000e+00	0.000000e+00	0.000000e+00	0.000000e+00	0.000000e+00	0.000000e+00	0.000000e+00	0.000000e+00	0.000000e+00	0.000000e+00	0.000000e+00	0.000000e+00	0.000000e+00	0.000000e+00	0.000000e+00	0.000000e+00	0.000000e+00	0.000000e+00	0.000000e+00	0.000000e+00	0.000000e+00	0.000000e+00	0.000000e+00	0.000000e+00	0.000000e+00	0.000000e+00	0.000000e+00	0.000000e+00	0.000000e+00	0.000000e+00	0.000000e+00	0.000000e+00	0.000000e+00	0.000000e+00	0.000000e+00	0.000000e+00	0.000000e+00	0.000000e+00	0.000000e+00	0.000000e+00	0.000000e+00	0.000000e+00	0.000000e+00	0.000000e+00	0.000000e+00	0.000000e+00	0.000000e+00	0.000000e+00	0.000000e+00	0.000000e+00	0.000000e+00	0.000000e+00	0.000000e+00	0.000000e+00	0.000000e+00	0.000000e+00	0.000000e+00	0.000000e+00	0.000000e+00	0.000000e+00	0.000000e+00	0.000000e+00	0.000000e+00	0.000000e+00	0.000000e+00	0.000000e+00	0.000000e+00	0.000000e+00	0.000000e+00	0.000000e+00	0.000000e+00	0.000000e+00	0.000000e+00	0.000000e+00	0.000000e+00	0.000000e+00	0.000000e+00	0.000000e+00	0.000000e+00	0.000000e+00	0.000000e+00	0.000000e+00	0.000000e+00	0.000000e+00	0.000000e+00	0.000000e+00	0.000000e+00	0.000000e+00	0.000000e+00	0.000000e+00	0.000000e+00	0.000000e+00	0.000000e+00	0.000000e+00	0.000000e+00	0.000000e+00	0.000000e+00	0.000000e+00	0.000000e+00	0.000000e+00	0.000000e+00	0.000000e+00	0.000000e+00	0.000000e+00	0.000000e+00	0.000000e+00	0.000000e+00	0.000000e+00	0.000000e+00	0.000000e+00	0.000000e+00	0.000000e+00	0.000000e+00	0.000000e+00	0.000000e+00	0.000000e+00	0.000000e+00	0.000000e+00	0.000000e+00	0.000000e+00	0.000000e+00	0.000000e+00	0.000000e+00	0.000000e+00	0.000000e+00	0.000000e+00	0.000000e+00	0.000000e+00	0.000000e+00	0.000000e+00	0.000000e+00	0.000000e+00	0.000000e+00	0.000000e+00	0.000000e+00	0.000000e+00	0.000000e+00	0.000000e+00	0.000000e+00	0.000000e+00	0.000000e+00	0.000000e+00	0.000000e+00	0.000000e+00	0.000000e+00	0.000000e+00	0.000000e+00	0.000000e+00	0.000000e+00	0.000000e+00	0.000000e+00	0.000000e+00	0.000000e+00	0.000000e+00	0.000000e+00	0.000000e+00	0.000000e+00	0.000000e+00	0.000000e+00	0.000000e+00	0.000000e+00	0.000000e+00	0.000000e+00	0.000000e+00	0.000000e+00	0.000000e+00	0.000000e+00	0.000000e+00	0.000000e+00	0.000000e+00	0.000000e+00	0.000000e+00	0.000000e+00	0.000000e+00	0.000000e+00	0.000000e+00	0.000000e+00	0.000000e+00	0.000000e+00	0.000000e+00	0.000000e+00	0.000000e+00	0.000000e+00	0.000000e+00	0.000000e+00	0.000000e+00	0.000000e+00	0.000000e+00	0.000000e+00	0.000000e+00	0.000000e+00	0.000000e+00	0.000000e+00	0.000000e+00	0.000000e+00	0.000000e+00	0.000000e+00	0.000000e+00	0.000000e+00	0.000000e+00	0.000000e+00	0.000000e+00	0.000000e+00	0.000000e+00	0.000000e+00	0.000000e+00	0.000000e+00	0.000000e+00	0.000000e+00	0.000000e+00	0.000000e+00	0.000000e+00	0.000000e+00	0.000000e+00	0.000000e+00	0.000000e+00	0.000000e+00	0.000000e+00	0.000000e+00	0.000000e+00	0.000000e+00	0.000000e+00	0.000000e+00	0.000000e+00	0.000000e+00	0.000000e+00	0.000000e+00	0.000000e+00	0.000000e+00	0.000000e+00	0.000000e+00	0.000000e+00	0.000000e+00	0.000000e+00	0.000000e+00	0.000000e+00	0.000000e+00	0.000000e+00	0.000000e+00	0.000000e+00	0.000000e+00	
SCALARS Temperature double 1
LOOKUP_TABLE default
1.000000e+00	1.000000e+00	1.000000e+00	1.000000e+00	1.000000e+00	1.000000e+00	1.000000e+00	1.000000e+00	1.000000e+00	1.000000e+00	1.000000e+00	1.000000e+00	1.000000e+00	1.000000e+00	1.000000e+00	1.000000e+00	1.000000e+00	1.000000e+00	1.000000e+00	1.000000e+00	1.000000e+00	1.000000e+00	1.000000e+00	1.000000e+00	1.000000e+00	1.000000e+00	1.000000e+00	1.000000e+00	1.000000e+00	1.000000e+00	1.000000e+00	1.000000e+00	1.000000e+00	1.000000e+00	1.000000e+00	1.000000e+00	1.000000e+00	1.000000e+00	1.000000e+00	1.000000e+00	1.000000e+00	1.000000e+00	1.000000e+00	1.000000e+00	1.000000e+00	1.000000e+00	1.000000e+00	1.000000e+00	1.000000e+00	1.000000e+00	1.000000e+00	1.000000e+00	1.000000e+00	1.000000e+00	1.000000e+00	1.000000e+00	1.000000e+00	1.000000e+00	1.000000e+00	1.000000e+00	1.000000e+00	1.000000e+00	1.000000e+00	1.000000e+00	1.000000e+00	1.000000e+00	1.000000e+00	1.000000e+00	1.000000e+00	1.000000e+00	1.000000e+00	1.000000e+00	1.000000e+00	1.000000e+00	1.000000e+00	1.000000e+00	1.000000e+00	1.000000e+00	1.000000e+00	1.000000e+00	1.000000e+00	1.000000e+00	1.000000e+00	1.000000e+00	1.000000e+00	1.000000e+00	1.000000e+00	1.000000e+00	1.000000e+00	1.000000e+00	1.000000e+00	1.000000e+00	1.000000e+00	1.000000e+00	1.000000e+00	1.000000e+00	1.000000e+00	1.000000e+00	1.000000e+00	1.000000e+00	1.000000e+00	1.000000e+00	1.000000e+00	1.000000e+00	1.000000e+00	1.000000e+00	1.000000e+00	1.000000e+00	1.000000e+00	1.000000e+00	1.000000e+00	1.000000e+00	1.000000e+00	1.000000e+00	1.000000e+00	1.000000e+00	1.000000e+00	1.000000e+00	1.000000e+00	1.000000e+00	1.000000e+00	1.000000e+00	1.000000e+00	1.000000e+00	1.000000e+00	1.000000e+00	1.000000e+00	1.000000e+00	1.000000e+00	1.000000e+00	1.000000e+00	1.000000e+00	1.000000e+00	1.000000e+00	1.000000e+00	1.000000e+00	1.000000e+00	1.000000e+00	1.000000e+00	1.000000e+00	1.000000e+00	1.000000e+00	1.000000e+00	1.000000e+00	1.000000e+00	1.000000e+00	1.000000e+00	1.000000e+00	1.000000e+00	1.000000e+00	1.000000e+00	1.000000e+00	1.000000e+00	1.000000e+00	1.000000e+00	1.000000e+00	1.000000e+00	1.000000e+00	1.000000e+00	1.000000e+00	1.000000e+00	1.000000e+00	1.000000e+00	1.000000e+00	1.000000e+00	1.000000e+00	1.000000e+00	1.000000e+00	1.000000e+00	1.000000e+00	1.000000e+00	1.000000e+00	1.000000e+00	1.000000e+00	1.000000e+00	1.000000e+00	1.000000e+00	1.000000e+00	1.000000e+00	1.000000e+00	1.000000e+00	1.000000e+00	1.000000e+00	1.000000e+00	1.000000e+00	1.000000e+00	1.000000e+00	1.000000e+00	1.000000e+00	1.000000e+00	1.000000e+00	1.000000e+00	1.000000e+00	1.000000e+00	1.000000e+00	1.000000e+00	1.000000e+00	1.000000e+00	1.000000e+00	1.000000e+00	1.000000e+00	1.000000e+00	1.000000e+00	1.000000e+00	1.000000e+00	1.000000e+00	1.000000e+00	1.000000e+00	1.000000e+00	1.000000e+00	1.000000e+00	1.000000e+00	1.000000e+00	1.000000e+00	1.000000e+00	1.000000e+00	1.000000e+00	1.000000e+00	1.000000e+00	1.000000e+00	1.000000e+00	1.000000e+00	1.000000e+00	1.000000e+00	1.000000e+00	1.000000e+00	1.000000e+00	1.000000e+00	1.000000e+00	1.000000e+00	1.000000e+00	1.000000e+00	1.000000e+00	1.000000e+00	1.000000e+00	1.000000e+00	1.000000e+00	1.000000e+00	1.000000e+00	1.000000e+00	1.000000e+00	1.000000e+00	1.000000e+00	1.000000e+00	1.000000e+00	1.000000e+00	1.000000e+00	1.000000e+00	1.000000e+00	1.000000e+00	1.000000e+00	1.000000e+00	1.000000e+00	1.000000e+00	1.000000e+00	1.000000e+00	
SCALARS Nu_Tilde double 1
LOOKUP_TABLE default
1.000000e-10	1.000000e-10	1.000000e-10	1.000000e-10	1.000000e-10	1.000000e-10	1.000000e-10	1.000000e-10	1.000000e-10	1.000000e-10	1.000000e-10	1.000000e-10	1.000000e-10	1.000000e-10	1.000000e-10	1.000000e-10	1.000000e-10	1.000000e-10	1.000000e-10	1.000000e-10	1.000000e-10	1.000000e-10	1.000000e-10	1.000000e-10	1.000000e-10	1.000000e-10	1.000000e-10	1.000000e-10	1.000000e-10	1.000000e-10	1.000000e-10	1.000000e-10	1.000000e-10	1.000000e-10	1.000000e-10	1.000000e-10	1.000000e-10	1.000000e-10	1.000000e-10	1.000000e-10	1.000000e-10	1.000000e-10	1.000000e-10	1.000000e-10	1.000000e-10	1.000000e-10	1.000000e-10	1.000000e-10	1.000000e-10	1.000000e-10	1.000000e-10	1.000000e-10	1.000000e-10	1.000000e-10	1.000000e-10	1.000000e-10	1.000000e-10	1.000000e-10	1.000000e-10	1.000000e-10	1.000000e-10	1.000000e-10	1.000000e-10	1.000000e-10	1.000000e-10	1.000000e-10	1.000000e-10	1.000000e-10	1.000000e-10	1.000000e-10	1.000000e-10	1.000000e-10	1.000000e-10	1.000000e-10	1.000000e-10	1.000000e-10	1.000000e-10	1.000000e-10	1.000000e-10	1.000000e-10	1.000000e-10	1.000000e-10	1.000000e-10	1.000000e-10	1.000000e-10	1.000000e-10	1.000000e-10	1.000000e-10	1.000000e-10	1.000000e-10	1.000000e-10	1.000000e-10	1.000000e-10	1.000000e-10	1.000000e-10	1.000000e-10	1.000000e-10	1.000000e-10	1.000000e-10	1.000000e-10	1.000000e-10	1.000000e-10	1.000000e-10	1.000000e-10	1.000000e-10	1.000000e-10	1.000000e-10	1.000000e-10	1.000000e-10	1.000000e-10	1.000000e-10	1.000000e-10	1.000000e-10	1.000000e-10	1.000000e-10	1.000000e-10	1.000000e-10	1.000000e-10	1.000000e-10	1.000000e-10	1.000000e-10	1.000000e-10	1.000000e-10	1.000000e-10	1.000000e-10	1.000000e-10	1.000000e-10	1.000000e-10	1.000000e-10	1.000000e-10	1.000000e-10	1.000000e-10	1.000000e-10	1.000000e-10	1.000000e-10	1.000000e-10	1.000000e-10	1.000000e-10	1.000000e-10	1.000000e-10	1.000000e-10	1.000000e-10	1.000000e-10	1.000000e-10	1.000000e-10	1.000000e-10	1.000000e-10	1.000000e-10	1.000000e-10	1.000000e-10	1.000000e-10	1.000000e-10	1.000000e-10	1.000000e-10	1.000000e-10	1.000000e-10	1.000000e-10	1.000000e-10	1.000000e-10	1.000000e-10	1.000000e-10	1.000000e-10	1.000000e-10	1.000000e-10	1.000000e-10	1.000000e-10	1.000000e-10	1.000000e-10	1.000000e-10	1.000000e-10	1.000000e-10	1.000000e-10	1.000000e-10	1.000000e-10	1.000000e-10	1.000000e-10	1.000000e-10	1.000000e-10	1.000000e-10	1.000000e-10	1.000000e-10	1.000000e-10	1.000000e-10	1.000000e-10	1.000000e-10	1.000000e-10	1.000000e-10	1.000000e-10	1.000000e-10	1.000000e-10	1.000000e-10	1.000000e-10	1.000000e-10	1.000000e-10	1.000000e-10	1.000000e-10	1.000000e-10	1.000000e-10	1.000000e-10	1.000000e-10	1.000000e-10	1.000000e-10	1.000000e-10	1.000000e-10	1.000000e-10	1.000000e-10	1.000000e-10	1.000000e-10	1.000000e-10	1.000000e-10	1.000000e-10	1.000000e-10	1.000000e-10	1.000000e-10	1.000000e-10	1.000000e-10	1.000000e-10	1.000000e-10	1.000000e-10	1.000000e-10	1.000000e-10	1.000000e-10	1.000000e-10	1.000000e-10	1.000000e-10	1.000000e-10	1.000000e-10	1.000000e-10	1.000000e-10	1.000000e-10	1.000000e-10	1.000000e-10	1.000000e-10	1.000000e-10	1.000000e-10	1.000000e-10	1.000000e-10	1.000000e-10	1.000000e-10	1.000000e-10	1.000000e-10	1.000000e-10	1.000000e-10	1.000000e-10	1.000000e-10	1.000000e-10	1.000000e-10	1.000000e-10	1.000000e-10	1.000000e-10	1.000000e-10	1.000000e-10	1.000000e-10	1.000000e-10	1.000000e-10	1.000000e-10	
SCALARS Pressure_Coefficient double 1
LOOKUP_TABLE default